 &FCI NORB= 22,NELEC=22,MS2= 0,
  ORBSYM=1,1,1,1,1,1,1,1,1,1,1,1,1,1,1,1,1,1,1,1,1,1,
  ISYM=1
 &END
   0.386192227024             1     1     1     1
  -0.193819243322E-01         1     1     2     1
   0.188792353306E-01         2     1     2     1
   0.857027792805E-02         2     2     2     1
   0.287368656186             1     1     2     2
   0.340426264116             2     2     2     2
  -0.207721879534E-02         1     1     3     1
  -0.516418501046E-02         2     1     3     1
  -0.210406799081E-01         2     2     3     1
   0.167712070359E-01         3     1     3     1
   0.823020746753E-03         3     2     3     1
  -0.626363024892E-01         3     3     3     1
  -0.785663218906E-02         1     1     3     2
   0.217656305075E-02         2     1     3     2
  -0.259971630748E-02         2     2     3     2
   0.664736636572E-02         3     2     3     2
  -0.137907911122E-01         3     3     3     2
   0.385649128088             1     1     3     3
   0.131957152696E-01         2     1     3     3
   0.415321215618             2     2     3     3
   0.775408553792             3     3     3     3
  -0.288430302992E-02         1     1     4     1
   0.101953960131E-02         2     1     4     1
  -0.283590395563E-02         2     2     4     1
   0.377494016505E-03         3     1     4     1
   0.512054218915E-03         3     2     4     1
  -0.519220513620E-02         3     3     4     1
   0.134094167977E-01         4     1     4     1
  -0.204040461983E-02         4     2     4     1
  -0.544146859145E-02         4     3     4     1
  -0.517628855999E-02         4     4     4     1
   0.567435300208E-02         1     1     4     2
   0.372956720614E-04         2     1     4     2
   0.783117280104E-02         2     2     4     2
  -0.227317088431E-02         3     1     4     2
  -0.744101560485E-03         3     2     4     2
   0.212698534395E-01         3     3     4     2
   0.944169568765E-02         4     2     4     2
   0.112174992010E-03         4     3     4     2
   0.188428991703E-01         4     4     4     2
   0.132446951764E-02         1     1     4     3
   0.259143719678E-03         2     1     4     3
   0.125490932670E-02         2     2     4     3
  -0.776089939654E-03         3     1     4     3
   0.912569326157E-03         3     2     4     3
   0.456597607368E-02         3     3     4     3
   0.224618779575E-01         4     3     4     3
   0.376205976971E-02         4     4     4     3
   0.378753183912             1     1     4     4
   0.188004213025E-02         2     1     4     4
   0.367423121610             2     2     4     4
  -0.371595562201E-01         3     1     4     4
  -0.127795117966E-01         3     2     4     4
   0.630200652727             3     3     4     4
   0.599267937378             4     4     4     4
   0.213682002830E-02         1     1     5     1
  -0.803391643734E-03         2     1     5     1
   0.132458431017E-02         2     2     5     1
  -0.318949857592E-03         3     1     5     1
  -0.257002461954E-03         3     2     5     1
   0.562431572381E-02         3     3     5     1
   0.268970701446E-02         4     1     5     1
   0.620624175441E-03         4     2     5     1
  -0.274829422603E-02         4     3     5     1
   0.421363427232E-02         4     4     5     1
   0.713074652229E-02         5     1     5     1
  -0.120582142759E-02         5     2     5     1
  -0.319918147641E-03         5     3     5     1
   0.477185677486E-02         5     4     5     1
  -0.607377163125E-02         5     5     5     1
  -0.979806087940E-03         1     1     5     2
  -0.296778881341E-04         2     1     5     2
  -0.233834172576E-02         2     2     5     2
  -0.106064246707E-03         3     1     5     2
  -0.265423745589E-03         3     2     5     2
  -0.140807547492E-02         3     3     5     2
   0.891861380060E-03         4     1     5     2
   0.160030840946E-02         4     2     5     2
  -0.162613676146E-02         4     3     5     2
  -0.120431949111E-03         4     4     5     2
   0.298512360790E-02         5     2     5     2
  -0.845275317288E-04         5     3     5     2
  -0.283261799624E-02         5     4     5     2
   0.646918105557E-02         5     5     5     2
  -0.357688499828E-02         1     1     5     3
  -0.521505636363E-03         2     1     5     3
  -0.494049302950E-02         2     2     5     3
   0.152944178920E-02         3     1     5     3
   0.312112941431E-03         3     2     5     3
  -0.116410329372E-01         3     3     5     3
  -0.162772356115E-02         4     1     5     3
   0.165717527211E-02         4     2     5     3
   0.673131100894E-02         4     3     5     3
  -0.789792846089E-02         4     4     5     3
   0.523246518700E-02         5     3     5     3
  -0.330246944185E-02         5     4     5     3
  -0.459932366304E-03         5     5     5     3
   0.537917381831E-01         1     1     5     4
   0.144589134890E-02         2     1     5     4
   0.617917531770E-01         2     2     5     4
  -0.119732445523E-01         3     1     5     4
  -0.409581924268E-02         3     2     5     4
   0.143809912840             3     3     5     4
  -0.339076434604E-02         4     1     5     4
   0.713579637060E-02         4     2     5     4
   0.270775235423E-03         4     3     5     4
   0.129741344892             4     4     5     4
   0.604903965115E-01         5     4     5     4
  -0.190069662686E-01         5     5     5     4
   0.244399266926             1     1     5     5
  -0.628094418682E-02         2     1     5     5
   0.215287638675             2     2     5     5
  -0.613395674431E-02         3     1     5     5
  -0.315277981974E-02         3     2     5     5
   0.266674975055             3     3     5     5
   0.475109545486E-02         4     1     5     5
  -0.608564938950E-03         4     2     5     5
   0.601300411549E-03         4     3     5     5
   0.266735437805             4     4     5     5
   0.327285596231             5     5     5     5
  -0.189791984239E-01         1     1     6     1
   0.315779813291E-02         2     1     6     1
  -0.693182443982E-02         2     2     6     1
  -0.138060018591E-02         3     1     6     1
   0.625045483256E-03         3     2     6     1
  -0.888087117991E-02         3     3     6     1
   0.382910428865E-03         4     1     6     1
  -0.764850802803E-05         4     2     6     1
   0.388658271778E-03         4     3     6     1
  -0.101152185174E-01         4     4     6     1
  -0.950340448316E-03         5     1     6     1
   0.350697667771E-04         5     2     6     1
  -0.103997663171E-03         5     3     6     1
  -0.165880860403E-02         5     4     6     1
  -0.981237906905E-02         5     5     6     1
   0.902041817035E-02         6     1     6     1
  -0.914894844005E-03         6     2     6     1
   0.853187566967E-03         6     3     6     1
   0.472242506936E-02         6     4     6     1
  -0.919948926783E-02         6     5     6     1
   0.112834938508E-01         6     6     6     1
   0.386533111560E-02         1     1     6     2
   0.765962453732E-03         2     1     6     2
   0.789354066529E-02         2     2     6     2
  -0.982757849869E-03         3     1     6     2
  -0.141499682842E-03         3     2     6     2
   0.112301949259E-01         3     3     6     2
  -0.964710648082E-03         4     1     6     2
   0.296695796160E-03         4     2     6     2
  -0.184442539047E-03         4     3     6     2
   0.856988984064E-02         4     4     6     2
   0.119479534417E-02         5     1     6     2
  -0.579573015864E-03         5     2     6     2
  -0.318044797562E-03         5     3     6     2
   0.659559639504E-02         5     4     6     2
  -0.799223374051E-02         5     5     6     2
   0.216576398922E-02         6     2     6     2
  -0.531790654110E-03         6     3     6     2
  -0.238444033128E-02         6     4     6     2
   0.282176078740E-02         6     5     6     2
  -0.172061375625E-01         6     6     6     2
  -0.456829435895E-02         1     1     6     3
   0.128940603474E-03         2     1     6     3
  -0.416233658354E-02         2     2     6     3
   0.724617029234E-03         3     1     6     3
   0.458794175161E-03         3     2     6     3
  -0.944429621471E-02         3     3     6     3
   0.580719588133E-03         4     1     6     3
  -0.430748325412E-03         4     2     6     3
  -0.845392236703E-03         4     3     6     3
  -0.744621653593E-02         4     4     6     3
  -0.325679954539E-03         5     1     6     3
   0.242130143059E-03         5     2     6     3
  -0.447682261690E-04         5     3     6     3
  -0.328668960446E-02         5     4     6     3
   0.710873777917E-03         5     5     6     3
   0.385251801531E-03         6     3     6     3
   0.788700672186E-03         6     4     6     3
  -0.536049608196E-03         6     5     6     3
   0.397495179152E-02         6     6     6     3
  -0.449669356010E-02         1     1     6     4
  -0.515262736207E-03         2     1     6     4
  -0.566754847558E-02         2     2     6     4
   0.135078773246E-02         3     1     6     4
   0.272451108353E-03         3     2     6     4
  -0.142733541210E-01         3     3     6     4
   0.906557878308E-03         4     1     6     4
  -0.545057496542E-03         4     2     6     4
   0.256438628043E-05         4     3     6     4
  -0.122482486324E-01         4     4     6     4
  -0.267695596535E-02         5     1     6     4
   0.126308992141E-02         5     2     6     4
  -0.850504569137E-04         5     3     6     4
  -0.674563753397E-02         5     4     6     4
   0.238385325666E-02         5     5     6     4
   0.773899153127E-02         6     4     6     4
  -0.143948022484E-01         6     5     6     4
   0.369231933170E-01         6     6     6     4
  -0.782622581372E-02         1     1     6     5
  -0.163498519709E-03         2     1     6     5
  -0.730452804969E-02         2     2     6     5
   0.561402744618E-03         3     1     6     5
   0.187964371474E-03         3     2     6     5
  -0.125824957433E-01         3     3     6     5
  -0.247797916234E-02         4     1     6     5
   0.204854163728E-03         4     2     6     5
  -0.836497734342E-03         4     3     6     5
  -0.128545909699E-01         4     4     6     5
   0.321230918857E-02         5     1     6     5
  -0.154531817769E-02         5     2     6     5
   0.101365506788E-02         5     3     6     5
  -0.310011423644E-02         5     4     6     5
   0.107216696509E-02         5     5     6     5
   0.332786481920E-01         6     5     6     5
  -0.658978897059E-01         6     6     6     5
   0.214595271148             1     1     6     6
  -0.494632744616E-02         2     1     6     6
   0.185320631747             2     2     6     6
   0.128373533087E-02         3     1     6     6
  -0.704010497685E-03         3     2     6     6
   0.189849257011             3     3     6     6
   0.114368099293E-01         4     1     6     6
  -0.474221090953E-02         4     2     6     6
   0.177746271268E-02         4     3     6     6
   0.202221647543             4     4     6     6
  -0.169969261170E-01         5     1     6     6
   0.104749807775E-01         5     2     6     6
  -0.329731281887E-03         5     3     6     6
  -0.462832825769E-01         5     4     6     6
   0.312120727751             5     5     6     6
   0.485527537348             6     6     6     6
   0.584066531465E-02         1     1     7     1
  -0.178071178905E-02         2     1     7     1
   0.784883375309E-03         2     2     7     1
   0.604276026538E-03         3     1     7     1
  -0.386222953978E-03         3     2     7     1
   0.211048670338E-02         3     3     7     1
  -0.235252228203E-03         4     1     7     1
   0.232055898122E-03         4     2     7     1
  -0.149170868485E-03         4     3     7     1
   0.298711958765E-02         4     4     7     1
   0.503393759022E-03         5     1     7     1
  -0.311020760181E-03         5     2     7     1
  -0.938623566039E-04         5     3     7     1
   0.133518501371E-02         5     4     7     1
   0.650005112170E-03         5     5     7     1
  -0.749876219526E-03         6     1     7     1
   0.105694526428E-03         6     2     7     1
  -0.803042295159E-04         6     3     7     1
  -0.762156507738E-03         6     4     7     1
   0.113839328172E-02         6     5     7     1
  -0.544597389373E-02         6     6     7     1
   0.656107160861E-02         7     1     7     1
  -0.938527776097E-03         7     2     7     1
   0.664397328249E-03         7     3     7     1
   0.121893212427E-02         7     4     7     1
  -0.273720268911E-02         7     5     7     1
  -0.188955635493E-02         7     6     7     1
   0.256993000251E-02         7     7     7     1
  -0.552365454903E-03         1     1     7     2
  -0.198506548483E-02         2     1     7     2
  -0.117900436972E-01         2     2     7     2
   0.219158617887E-02         3     1     7     2
  -0.328523103737E-04         3     2     7     2
  -0.169803241880E-01         3     3     7     2
   0.131772085528E-02         4     1     7     2
  -0.127278929466E-02         4     2     7     2
  -0.404270460275E-04         4     3     7     2
  -0.118239834507E-01         4     4     7     2
  -0.127689851052E-02         5     1     7     2
   0.135919153481E-02         5     2     7     2
   0.636325412650E-03         5     3     7     2
  -0.121076658561E-01         5     4     7     2
   0.205590376567E-01         5     5     7     2
  -0.231048650451E-02         6     1     7     2
  -0.270508393858E-02         6     2     7     2
   0.578673952706E-03         6     3     7     2
   0.136017006644E-02         6     4     7     2
   0.846707972160E-03         6     5     7     2
   0.228678057423E-01         6     6     7     2
   0.748569704032E-02         7     2     7     2
   0.277309691029E-03         7     3     7     2
  -0.166119709026E-02         7     4     7     2
  -0.619242078872E-03         7     5     7     2
   0.527850412200E-02         7     6     7     2
   0.626631068155E-01         7     7     7     2
   0.702323011043E-03         1     1     7     3
  -0.483379212497E-03         2     1     7     3
  -0.751895596616E-03         2     2     7     3
   0.269055387189E-03         3     1     7     3
  -0.451177419009E-03         3     2     7     3
  -0.145696121170E-02         3     3     7     3
  -0.182983356225E-03         4     1     7     3
   0.486991354908E-04         4     2     7     3
   0.201389866082E-03         4     3     7     3
  -0.764281135507E-03         4     4     7     3
   0.684577521105E-04         5     1     7     3
   0.719624236831E-05         5     2     7     3
   0.213689569381E-03         5     3     7     3
  -0.614833060112E-03         5     4     7     3
   0.104804230334E-02         5     5     7     3
  -0.278167709974E-03         6     1     7     3
  -0.101889047156E-03         6     2     7     3
   0.162185745880E-05         6     3     7     3
  -0.284287546116E-04         6     4     7     3
   0.293509230007E-03         6     5     7     3
   0.726496646826E-03         6     6     7     3
   0.233834114758E-03         7     3     7     3
   0.253660423799E-04         7     4     7     3
  -0.261212941163E-03         7     5     7     3
   0.577118709765E-03         7     6     7     3
   0.386462852388E-02         7     7     7     3
   0.366969624083E-03         1     1     7     4
   0.390010521350E-03         2     1     7     4
   0.149272228965E-02         2     2     7     4
  -0.472441564197E-03         3     1     7     4
  -0.705768586502E-04         3     2     7     4
   0.435185024814E-02         3     3     7     4
  -0.102834997836E-03         4     1     7     4
  -0.161173592255E-03         4     2     7     4
  -0.147164217346E-03         4     3     7     4
   0.360815578530E-02         4     4     7     4
   0.873507735916E-03         5     1     7     4
  -0.788667319993E-03         5     2     7     4
  -0.247409923540E-03         5     3     7     4
   0.325432243121E-02         5     4     7     4
  -0.413017498095E-02         5     5     7     4
  -0.182324471021E-03         6     1     7     4
   0.792009441893E-03         6     2     7     4
  -0.182448893766E-03         6     3     7     4
  -0.146112555242E-02         6     4     7     4
   0.188513771899E-02         6     5     7     4
  -0.106674232173E-01         6     6     7     4
   0.143645247305E-02         7     4     7     4
  -0.274763278823E-02         7     5     7     4
  -0.894910837985E-03         7     6     7     4
  -0.132095932366E-01         7     7     7     4
   0.198199602865E-02         1     1     7     5
  -0.144101095113E-03         2     1     7     5
   0.291630724741E-02         2     2     7     5
  -0.414563418892E-03         3     1     7     5
  -0.282492564110E-04         3     2     7     5
   0.496810013127E-02         3     3     7     5
   0.426857487472E-03         4     1     7     5
  -0.175703867284E-03         4     2     7     5
   0.144392036576E-03         4     3     7     5
   0.452767316108E-02         4     4     7     5
  -0.419751514655E-03         5     1     7     5
   0.620084720380E-03         5     2     7     5
  -0.215298962412E-03         5     3     7     5
   0.236814155191E-02         5     4     7     5
  -0.315867087763E-02         5     5     7     5
   0.150949299083E-02         6     1     7     5
  -0.228343418056E-04         6     2     7     5
  -0.644470853052E-04         6     3     7     5
   0.188623665072E-02         6     4     7     5
  -0.466227837384E-02         6     5     7     5
   0.964133835570E-02         6     6     7     5
   0.946515399050E-02         7     5     7     5
  -0.560963646940E-03         7     6     7     5
  -0.108762871975E-01         7     7     7     5
   0.903149064778E-02         1     1     7     6
  -0.229616989565E-02         2     1     7     6
  -0.170660480639E-03         2     2     7     6
   0.118525174244E-02         3     1     7     6
  -0.124007226786E-03         3     2     7     6
  -0.331659941306E-02         3     3     7     6
   0.846658405128E-04         4     1     7     6
  -0.860121803486E-03         4     2     7     6
  -0.319431063577E-03         4     3     7     6
  -0.138186457518E-02         4     4     7     6
   0.355310383111E-03         5     1     7     6
   0.904093310879E-03         5     2     7     6
   0.505678323092E-03         5     3     7     6
  -0.810344904514E-02         5     4     7     6
   0.239643120868E-01         5     5     7     6
  -0.783113447619E-02         6     1     7     6
  -0.410520386944E-03         6     2     7     6
   0.931267442368E-04         6     3     7     6
  -0.446111343431E-02         6     4     7     6
   0.120759708080E-01         6     5     7     6
   0.391772224676E-03         6     6     7     6
   0.233908813516E-01         7     6     7     6
   0.770179172510E-01         7     7     7     6
   0.280990238661             1     1     7     7
  -0.152294685457E-01         2     1     7     7
   0.200014228838             2     2     7     7
   0.833346262082E-02         3     1     7     7
  -0.166019217445E-02         3     2     7     7
   0.190611887059             3     3     7     7
   0.114197964156E-01         4     1     7     7
  -0.971707781288E-02         4     2     7     7
   0.884250468337E-03         4     3     7     7
   0.210750444897             4     4     7     7
  -0.144842872557E-01         5     1     7     7
   0.137814756949E-01         5     2     7     7
   0.201843418262E-02         5     3     7     7
  -0.850629433714E-01         5     4     7     7
   0.450963528140             5     5     7     7
  -0.338251428527E-01         6     1     7     7
  -0.211502381140E-01         6     2     7     7
   0.314757771202E-02         6     3     7     7
   0.958948572150E-02         6     4     7     7
   0.353732231693E-02         6     5     7     7
   0.445511363605             6     6     7     7
   0.926982714517             7     7     7     7
  -0.274155189990E-02         1     1     8     1
   0.669461222137E-03         2     1     8     1
   0.884277517952E-03         2     2     8     1
  -0.873538926439E-03         3     1     8     1
   0.321021923391E-03         3     2     8     1
  -0.587850380215E-04         3     3     8     1
  -0.662494438512E-03         4     1     8     1
  -0.116195471678E-02         4     2     8     1
   0.192672322475E-02         4     3     8     1
  -0.974521722060E-03         4     4     8     1
  -0.285131210863E-02         5     1     8     1
  -0.414228883386E-03         5     2     8     1
   0.144184025376E-03         5     3     8     1
   0.143743635203E-03         5     4     8     1
  -0.888973829697E-03         5     5     8     1
   0.334629529091E-04         6     1     8     1
   0.173489240515E-03         6     2     8     1
  -0.342686149984E-04         6     3     8     1
  -0.389262047283E-03         6     4     8     1
   0.700720128505E-03         6     5     8     1
  -0.209815023294E-02         6     6     8     1
  -0.167932396833E-03         7     1     8     1
  -0.715783442994E-04         7     2     8     1
  -0.273701017515E-04         7     3     8     1
   0.132830793733E-03         7     4     8     1
  -0.333545672757E-03         7     5     8     1
   0.391531321269E-03         7     6     8     1
   0.100595443876E-02         7     7     8     1
   0.112049846222E-01         8     1     8     1
  -0.703384692607E-03         8     2     8     1
   0.207129965864E-02         8     3     8     1
  -0.144816425766E-03         8     4     8     1
   0.244409703171E-03         8     5     8     1
  -0.678878431797E-03         8     6     8     1
   0.344660131376E-03         8     7     8     1
  -0.780737658196E-03         8     8     8     1
  -0.399573754668E-03         1     1     8     2
  -0.444117615838E-03         2     1     8     2
  -0.180898791505E-02         2     2     8     2
   0.464212553241E-03         3     1     8     2
   0.576377514796E-04         3     2     8     2
  -0.256074695877E-02         3     3     8     2
  -0.286555681434E-02         4     1     8     2
   0.164307250657E-02         4     2     8     2
   0.491861901368E-02         4     3     8     2
  -0.128556513812E-02         4     4     8     2
  -0.108553114986E-02         5     1     8     2
  -0.151299728933E-02         5     2     8     2
   0.236646110243E-02         5     3     8     2
  -0.152903898594E-02         5     4     8     2
   0.759960813133E-03         5     5     8     2
   0.202155307860E-03         6     1     8     2
  -0.295584267278E-03         6     2     8     2
  -0.156396505537E-03         6     3     8     2
   0.437005834823E-03         6     4     8     2
  -0.498778408289E-03         6     5     8     2
   0.205444042619E-02         6     6     8     2
  -0.940057826740E-04         7     1     8     2
   0.250485689641E-03         7     2     8     2
   0.111662977652E-03         7     3     8     2
  -0.334657557168E-03         7     4     8     2
   0.337746641590E-03         7     5     8     2
  -0.712588492423E-04         7     6     8     2
   0.162403959129E-02         7     7     8     2
   0.785614325811E-02         8     2     8     2
  -0.178702759614E-02         8     3     8     2
   0.395843444786E-03         8     4     8     2
   0.101509976644E-02         8     5     8     2
   0.357830969829E-03         8     6     8     2
  -0.477270958464E-03         8     7     8     2
  -0.209769676863E-02         8     8     8     2
  -0.242404472576E-02         1     1     8     3
   0.143283616232E-03         2     1     8     3
  -0.220593632895E-02         2     2     8     3
   0.547141555517E-03         3     1     8     3
   0.745098359812E-04         3     2     8     3
  -0.612693602648E-02         3     3     8     3
  -0.882003266186E-03         4     1     8     3
  -0.645458449398E-02         4     2     8     3
   0.270748133056E-02         4     3     8     3
  -0.542215368553E-02         4     4     8     3
  -0.103663869878E-02         5     1     8     3
  -0.132127530875E-02         5     2     8     3
  -0.707903842279E-02         5     3     8     3
  -0.218438178669E-02         5     4     8     3
   0.130476888932E-02         5     5     8     3
  -0.872585796012E-05         6     1     8     3
   0.659377642194E-04         6     2     8     3
  -0.478468623859E-04         6     3     8     3
  -0.183747569856E-03         6     4     8     3
   0.615254874552E-03         6     5     8     3
   0.127247474897E-02         6     6     8     3
  -0.118807969163E-03         7     1     8     3
   0.440966623834E-03         7     2     8     3
  -0.165849131216E-03         7     3     8     3
   0.282280861243E-03         7     4     8     3
  -0.120271946241E-03         7     5     8     3
   0.521144144690E-03         7     6     8     3
   0.456071234029E-02         7     7     8     3
   0.244939266416E-01         8     3     8     3
  -0.797577094987E-03         8     4     8     3
   0.193342927742E-02         8     5     8     3
  -0.380474820599E-03         8     6     8     3
   0.189885984076E-03         8     7     8     3
  -0.540252907221E-02         8     8     8     3
   0.212935049610E-01         1     1     8     4
   0.464667879555E-02         2     1     8     4
   0.192947817269E-01         2     2     8     4
  -0.566951572696E-02         3     1     8     4
  -0.411443703478E-03         3     2     8     4
   0.499490153879E-01         3     3     8     4
  -0.107457721011E-02         4     1     8     4
   0.219307709132E-02         4     2     8     4
   0.628423871218E-03         4     3     8     4
   0.453602508017E-01         4     4     8     4
   0.130633953692E-02         5     1     8     4
  -0.951192727356E-03         5     2     8     4
  -0.111065078436E-02         5     3     8     4
   0.128310864932E-01         5     4     8     4
  -0.871928071382E-02         5     5     8     4
  -0.444739633126E-03         6     1     8     4
   0.202749654682E-02         6     2     8     4
  -0.110099944417E-02         6     3     8     4
  -0.222445222661E-02         6     4     8     4
  -0.107532846847E-02         6     5     8     4
  -0.131664049129E-01         6     6     8     4
   0.137353508205E-03         7     1     8     4
  -0.359319901892E-02         7     2     8     4
  -0.230136854256E-03         7     3     8     4
   0.793488176002E-03         7     4     8     4
   0.593523233165E-03         7     5     8     4
  -0.230243389241E-02         7     6     8     4
  -0.235128712430E-01         7     7     8     4
   0.261696850930E-01         8     4     8     4
  -0.116740223627E-01         8     5     8     4
  -0.185291653986E-02         8     6     8     4
  -0.347810647774E-03         8     7     8     4
   0.454661036230E-01         8     8     8     4
  -0.530311562698E-01         1     1     8     5
  -0.255902573934E-03         2     1     8     5
  -0.597006950901E-01         2     2     8     5
   0.144647003867E-01         3     1     8     5
   0.334531793367E-02         3     2     8     5
  -0.137730740933             3     3     8     5
   0.352910504413E-02         4     1     8     5
  -0.667525166125E-02         4     2     8     5
  -0.117318783269E-02         4     3     8     5
  -0.112144921545             4     4     8     5
  -0.405647673654E-02         5     1     8     5
   0.265601040137E-02         5     2     8     5
   0.322928026705E-02         5     3     8     5
  -0.529688330733E-01         5     4     8     5
   0.164552422318E-01         5     5     8     5
   0.939623036396E-03         6     1     8     5
  -0.591574706946E-02         6     2     8     5
   0.312721867692E-02         6     3     8     5
   0.504529114890E-02         6     4     8     5
   0.462892250014E-02         6     5     8     5
   0.396572562505E-01         6     6     8     5
  -0.136496094328E-02         7     1     8     5
   0.114068923117E-01         7     2     8     5
   0.568502536288E-03         7     3     8     5
  -0.272024972910E-02         7     4     8     5
  -0.255297553079E-02         7     5     8     5
   0.803511060536E-02         7     6     8     5
   0.785281773672E-01         7     7     8     5
   0.552233811246E-01         8     5     8     5
   0.344824620603E-02         8     6     8     5
   0.188665148209E-02         8     7     8     5
  -0.125738470450             8     8     8     5
  -0.222561480972E-02         1     1     8     6
  -0.793425519417E-03         2     1     8     6
  -0.458401836291E-02         2     2     8     6
   0.903278598012E-03         3     1     8     6
  -0.226586149730E-04         3     2     8     6
  -0.786068829819E-02         3     3     8     6
  -0.696161586501E-03         4     1     8     6
  -0.226487061779E-04         4     2     8     6
  -0.227047056327E-03         4     3     8     6
  -0.698677086672E-02         4     4     8     6
   0.111109262634E-02         5     1     8     6
  -0.385762843182E-03         5     2     8     6
   0.701017296534E-03         5     3     8     6
  -0.301840490681E-02         5     4     8     6
   0.383896110186E-02         5     5     8     6
  -0.364389910830E-02         6     1     8     6
   0.462070951153E-03         6     2     8     6
  -0.149764654093E-04         6     3     8     6
  -0.499762386479E-02         6     4     8     6
   0.124324379168E-01         6     5     8     6
  -0.213249407248E-01         6     6     8     6