 &FCI NORB= 24,NELEC=24,MS2= 0,
  ORBSYM=1,1,1,1,1,1,1,2,2,2,2,2,3,3,3,3,3,4,4,4,4,4,4,4,
  ISYM=1
 &END
   0.618242853543             1     1     1     1
  -0.603581608400E-04         1     1     2     1
   0.212936796705E-01         2     1     2     1
   0.221014332193E-04         2     2     2     1
   0.575570809427             1     1     2     2
   0.627798954751             2     2     2     2
   0.226916873248E-02         1     1     3     1
   0.161708957405E-04         2     1     3     1
  -0.913686793873E-03         2     2     3     1
   0.198027935924E-01         3     1     3     1
  -0.100914961429E-03         3     2     3     1
   0.637561551142E-02         3     3     3     1
   0.791134943321E-04         1     1     3     2
   0.425525989542E-02         2     1     3     2
  -0.103726598506E-03         2     2     3     2
   0.124834280211E-01         3     2     3     2
  -0.881511530173E-04         3     3     3     2
   0.563192573251             1     1     3     3
   0.317680727151E-03         2     1     3     3
   0.594242398935             2     2     3     3
   0.610434850548             3     3     3     3
   0.408963721030E-01         1     1     4     1
  -0.226277913549E-04         2     1     4     1
   0.365344465454E-01         2     2     4     1
   0.390846883188E-04         3     1     4     1
   0.568380781216E-06         3     2     4     1
   0.345068623668E-01         3     3     4     1
   0.101751588365E-01         4     1     4     1
  -0.723837486057E-04         4     2     4     1
  -0.559888135755E-02         4     3     4     1
  -0.222625764926E-01         4     4     4     1
  -0.319610581776E-03         1     1     4     2
   0.271779187424E-02         2     1     4     2
  -0.373797187336E-03         2     2     4     2
   0.391440540906E-07         3     1     4     2
  -0.358638863013E-03         3     2     4     2
  -0.294530550538E-03         3     3     4     2
   0.147572510339E-02         4     2     4     2
   0.487393315791E-04         4     3     4     2
   0.167348557311E-03         4     4     4     2
  -0.163119949725E-01         1     1     4     3
  -0.300431768186E-04         2     1     4     3
  -0.195350168213E-01         2     2     4     3
   0.160734227751E-02         3     1     4     3
  -0.163465695894E-04         3     2     4     3
  -0.198390650968E-01         3     3     4     3
   0.460747055009E-02         4     3     4     3
   0.193218711240E-01         4     4     4     3
   0.307321634362             1     1     4     4
  -0.570429891817E-04         2     1     4     4
   0.300836816798             2     2     4     4
  -0.660538289550E-02         3     1     4     4
   0.653739615434E-04         3     2     4     4
   0.299427471738             3     3     4     4
   0.481945332455             4     4     4     4
   0.137823878333             1     1     5     1
   0.665901044670E-04         2     1     5     1
   0.126640857320             2     2     5     1
   0.379176117708E-02         3     1     5     1
  -0.552961523439E-05         3     2     5     1
   0.122321170534             3     3     5     1
   0.190227760500E-01         4     1     5     1
  -0.924441094592E-04         4     2     5     1
  -0.901393469091E-02         4     3     5     1
   0.517132536156E-02         4     4     5     1
   0.100871881062             5     1     5     1
   0.663688427017E-03         5     2     5     1
   0.230546778661E-01         5     3     5     1
   0.135444324757E-01         5     4     5     1
   0.110331422113             5     5     5     1
   0.104292548236E-02         1     1     5     2
   0.742808755254E-02         2     1     5     2
   0.116972716967E-02         2     2     5     2
  -0.236029646439E-04         3     1     5     2
   0.182593939674E-02         3     2     5     2
   0.115608169024E-02         3     3     5     2
   0.188655323989E-03         4     1     5     2
   0.247492798583E-02         4     2     5     2
  -0.701932102974E-04         4     3     5     2
   0.129598952795E-03         4     4     5     2
   0.970284215401E-02         5     2     5     2
   0.224967484838E-03         5     3     5     2
   0.638517344645E-04         5     4     5     2
   0.952172532385E-03         5     5     5     2
   0.353197884279E-01         1     1     5     3
  -0.416411561316E-05         2     1     5     3
   0.348503774840E-01         2     2     5     3
   0.732389863078E-02         3     1     5     3
  -0.238564798209E-04         3     2     5     3
   0.370262108290E-01         3     3     5     3
   0.332330676035E-02         4     1     5     3
  -0.207380490070E-04         4     2     5     3
   0.181125524505E-03         4     3     5     3
   0.392969515627E-02         4     4     5     3
   0.158455779172E-01         5     3     5     3
   0.291347853355E-02         5     4     5     3
   0.319108939760E-01         5     5     5     3
   0.257742864162E-01         1     1     5     4
   0.111975158810E-03         2     1     5     4
   0.285164633548E-01         2     2     5     4
  -0.129505029348E-02         3     1     5     4
   0.307261273958E-04         3     2     5     4
   0.271967042637E-01         3     3     5     4
   0.249246499559E-02         4     1     5     4
  -0.200168947061E-04         4     2     5     4
  -0.256397644560E-02         4     3     5     4
  -0.110797032858E-01         4     4     5     4
   0.849939537265E-02         5     4     5     4
   0.198156104071E-01         5     5     5     4
   0.530555936074             1     1     5     5
   0.138927262350E-03         2     1     5     5
   0.501215691761             2     2     5     5
   0.825431033400E-02         3     1     5     5
   0.785290912800E-04         3     2     5     5
   0.495592966304             3     3     5     5
   0.297291901607E-01         4     1     5     5
  -0.231659224423E-03         4     2     5     5
  -0.111132960153E-01         4     3     5     5
   0.301902007142             4     4     5     5
   0.487240088180             5     5     5     5
   0.911968569217E-03         1     1     6     1
  -0.733849918991E-02         2     1     6     1
   0.855932477899E-03         2     2     6     1
   0.461268997439E-04         3     1     6     1
  -0.887116383037E-03         3     2     6     1
   0.737803942844E-03         3     3     6     1
   0.958344195300E-04         4     1     6     1
  -0.263630554410E-02         4     2     6     1
  -0.695181092960E-04         4     3     6     1
  -0.210248329757E-04         4     4     6     1
   0.676006618889E-03         5     1     6     1
  -0.956639618345E-02         5     2     6     1
   0.120529543933E-03         5     3     6     1
   0.119176045996E-03         5     4     6     1
   0.634375538069E-03         5     5     6     1
   0.983921883205E-02         6     1     6     1
  -0.636356749679E-03         6     2     6     1
   0.179798834672E-02         6     3     6     1
   0.577876149228E-03         6     4     6     1
   0.528708458904E-02         6     5     6     1
   0.792629400096E-03         6     6     6     1
  -0.130390108328             1     1     6     2
   0.510780500644E-04         2     1     6     2
  -0.147726739563             2     2     6     2
  -0.674943512312E-04         3     1     6     2
   0.379665268121E-04         3     2     6     2
  -0.134877324269             3     3     6     2
  -0.200165855572E-01         4     1     6     2
   0.261260580925E-03         4     2     6     2
   0.930609454079E-02         4     3     6     2
  -0.873206869977E-02         4     4     6     2
  -0.825238324506E-01         5     1     6     2
  -0.768770270685E-03         5     2     6     2
  -0.231374212076E-01         5     3     6     2
  -0.107814983779E-01         5     4     6     2
  -0.107282056019             5     5     6     2
   0.108845447629             6     2     6     2
  -0.353620452907E-03         6     3     6     2
  -0.191973954905E-03         6     4     6     2
   0.425254389304E-04         6     5     6     2
  -0.119620581424             6     6     6     2
   0.417728763026E-03         1     1     6     3
  -0.324005958879E-03         2     1     6     3
   0.405024381900E-03         2     2     6     3
   0.986361522246E-04         3     1     6     3
  -0.335528918880E-02         3     2     6     3
   0.432215376198E-03         3     3     6     3
   0.244849546550E-04         4     1     6     3
  -0.326920701373E-03         4     2     6     3
   0.198867228056E-04         4     3     6     3
   0.391470513982E-04         4     4     6     3
   0.224399856662E-03         5     1     6     3
  -0.319888994147E-02         5     2     6     3
   0.139048228620E-03         5     3     6     3
   0.455865554285E-04         5     4     6     3
   0.386665665426E-03         5     5     6     3
   0.668171234016E-02         6     3     6     3
  -0.638693899200E-03         6     4     6     3
   0.421043959094E-03         6     5     6     3
   0.328841243509E-03         6     6     6     3
   0.345097149723E-03         1     1     6     4
  -0.406252204740E-02         2     1     6     4
   0.594565465078E-03         2     2     6     4
  -0.392048125643E-04         3     1     6     4
  -0.735392123672E-03         3     2     6     4
   0.469004998678E-03         3     3     6     4
   0.495490809845E-04         4     1     6     4
   0.255365056084E-03         4     2     6     4
  -0.498012024120E-04         4     3     6     4
  -0.251178872441E-03         4     4     6     4
   0.217591487428E-03         5     1     6     4
  -0.726196884552E-03         5     2     6     4
   0.574295527906E-04         5     3     6     4
   0.995772555269E-04         5     4     6     4
   0.193060697324E-03         5     5     6     4
   0.291057521574E-02         6     4     6     4
   0.377392570195E-02         6     5     6     4
   0.598731972263E-03         6     6     6     4
   0.294156062632E-03         1     1     6     5
  -0.140609827592E-01         2     1     6     5
  -0.263421891615E-03         2     2     6     5
   0.884163627038E-04         3     1     6     5
  -0.479559756313E-02         3     2     6     5
  -0.312277225413E-03         3     3     6     5
   0.402088559390E-04         4     1     6     5
  -0.119341638762E-02         4     2     6     5
   0.663658106479E-04         4     3     6     5
   0.242936573748E-03         4     4     6     5
  -0.259513730149E-04         5     1     6     5
  -0.547856460603E-02         5     2     6     5
   0.552155880193E-04         5     3     6     5
  -0.165755600811E-03         5     4     6     5
   0.175198156843E-03         5     5     6     5
   0.135653943188E-01         6     5     6     5
  -0.572953733754E-04         6     6     6     5
   0.505026239558             1     1     6     6
  -0.192373211800E-03         2     1     6     6
   0.541242229981             2     2     6     6
  -0.528325669677E-03         3     1     6     6
  -0.167798983171E-03         3     2     6     6
   0.518336111595             3     3     6     6
   0.270104304846E-01         4     1     6     6
  -0.270397862386E-03         4     2     6     6
  -0.149538802002E-01         4     3     6     6
   0.292861782221             4     4     6     6
   0.104514018953             5     1     6     6
   0.856336728781E-03         5     2     6     6
   0.283817687777E-01         5     3     6     6
   0.251640787419E-01         5     4     6     6
   0.457086526579             5     5     6     6
   0.495419561586             6     6     6     6
   0.332141711183E-01         1     1     7     1
   0.762192384592E-05         2     1     7     1
   0.324794322100E-01         2     2     7     1
  -0.703568341702E-02         3     1     7     1
   0.469638426441E-04         3     2     7     1
   0.291671213473E-01         3     3     7     1
   0.657458108242E-02         4     1     7     1
  -0.578126403090E-04         4     2     7     1
  -0.505363176272E-02         4     3     7     1
  -0.253371982564E-02         4     4     7     1
   0.232867631719E-01         5     1     7     1
   0.104537024433E-03         5     2     7     1
  -0.344891807575E-02         5     3     7     1
   0.363650668367E-02         5     4     7     1
   0.229289129866E-01         5     5     7     1
   0.217538030166E-03         6     1     7     1
  -0.202975862422E-01         6     2     7     1
  -0.361327220625E-04         6     3     7     1
   0.555941140450E-04         6     4     7     1
  -0.703821157969E-04         6     5     7     1
   0.267614204264E-01         6     6     7     1
   0.143282659820E-01         7     1     7     1
  -0.692955362140E-04         7     2     7     1
  -0.180941342733E-01         7     3     7     1
   0.249604255548E-02         7     4     7     1
   0.451686112963E-02         7     5     7     1
   0.659776009964E-04         7     6     7     1
   0.265121102544E-01         7     7     7     1
  -0.156386831674E-03         1     1     7     2
   0.110359258684E-02         2     1     7     2
  -0.168001786436E-03         2     2     7     2
   0.430366043948E-04         3     1     7     2
  -0.367420976771E-02         3     2     7     2
  -0.123169332460E-03         3     3     7     2
  -0.435808369545E-04         4     1     7     2
   0.244954344194E-04         4     2     7     2
   0.429540643794E-04         4     3     7     2
   0.356877282877E-04         4     4     7     2
  -0.167459024912E-03         5     1     7     2
  -0.168810451462E-02         5     2     7     2
  -0.323650477982E-04         5     3     7     2
  -0.907965958981E-05         5     4     7     2
  -0.804363928408E-04         5     5     7     2
   0.328550897979E-03         6     1     7     2
   0.285092362372E-04         6     2     7     2
   0.622441709090E-02         6     3     7     2
  -0.960633981035E-03         6     4     7     2
  -0.543828477013E-03         6     5     7     2
  -0.156013931997E-03         6     6     7     2
   0.611845465026E-02         7     2     7     2
   0.439867242894E-04         7     3     7     2
  -0.104855587891E-04         7     4     7     2
  -0.162776713101E-04         7     5     7     2
  -0.203746338746E-02         7     6     7     2
  -0.130861101060E-03         7     7     7     2
  -0.130832941569             1     1     7     3
  -0.983462078462E-04         2     1     7     3
  -0.141398982345             2     2     7     3
   0.406316754031E-03         3     1     7     3
   0.623948731952E-06         3     2     7     3
  -0.142989296690             3     3     7     3
  -0.193937661579E-01         4     1     7     3
   0.174206176219E-03         4     2     7     3
   0.899922965532E-02         4     3     7     3
  -0.110038145910E-01         4     4     7     3
  -0.784202051336E-01         5     1     7     3
  -0.842441761023E-03         5     2     7     3
  -0.267960562843E-01         5     3     7     3
  -0.100728179384E-01         5     4     7     3
  -0.106818873650             5     5     7     3
  -0.414907434584E-03         6     1     7     3
   0.937210167644E-01         6     2     7     3
  -0.345876001161E-03         6     3     7     3
  -0.167900474827E-03         6     4     7     3
   0.116069412959E-03         6     5     7     3
  -0.114349872484             6     6     7     3
   0.103792550100             7     3     7     3
  -0.110664831596E-01         7     4     7     3
   0.117185262144E-02         7     5     7     3
   0.138293792231E-04         7     6     7     3
  -0.112763405996             7     7     7     3
   0.229359645944E-01         1     1     7     4
  -0.444690697609E-05         2     1     7     4
   0.220924444148E-01         2     2     7     4
  -0.437339028365E-02         3     1     7     4
   0.526001869936E-04         3     2     7     4
   0.201561376274E-01         3     3     7     4
  -0.130686745060E-03         4     1     7     4
   0.548380842578E-06         4     2     7     4
   0.518063288797E-03         4     3     7     4
   0.153691759152E-01         4     4     7     4
   0.868546669818E-02         5     1     7     4
   0.877824511136E-04         5     2     7     4
   0.242726015982E-02         5     3     7     4
   0.416681059504E-02         5     4     7     4
   0.175050262836E-01         5     5     7     4
   0.494015697594E-04         6     1     7     4
  -0.100115486260E-01         6     2     7     4
   0.302400146931E-04         6     3     7     4
   0.722609247848E-04         6     4     7     4
  -0.163023392195E-04         6     5     7     4
   0.187901239159E-01         6     6     7     4
   0.616294344802E-02         7     4     7     4
   0.389927365344E-02         7     5     7     4
   0.766890027127E-04         7     6     7     4
   0.169058949928E-01         7     7     7     4
   0.955689186173E-02         1     1     7     5
  -0.177897807957E-03         2     1     7     5
  -0.465984920747E-02         2     2     7     5
  -0.112051863977E-01         3     1     7     5
   0.127344097099E-05         3     2     7     5
  -0.131369980634E-01         3     3     7     5
   0.966759369525E-03         4     1     7     5
  -0.115748971095E-05         4     2     7     5
   0.623198118721E-03         4     3     7     5
   0.827803356796E-02         4     4     7     5
  -0.929504368416E-03         5     1     7     5
   0.496149265600E-05         5     2     7     5
  -0.477125203076E-02         5     3     7     5
  -0.360693896356E-03         5     4     7     5
   0.395646542548E-02         5     5     7     5
  -0.250422359245E-04         6     1     7     5
   0.798204915692E-03         6     2     7     5
  -0.550124504865E-04         6     3     7     5
   0.629461215476E-05         6     4     7     5
   0.226537143436E-03         6     5     7     5
  -0.475991778005E-02         6     6     7     5
   0.150647180134E-01         7     5     7     5
   0.141782775106E-03         7     6     7     5
  -0.974217557684E-02         7     7     7     5
   0.202402071388E-03         1     1     7     6
   0.155520349111E-02         2     1     7     6
  -0.186121110202E-03         2     2     7     6
  -0.133484966374E-03         3     1     7     6
   0.793332751878E-02         3     2     7     6
  -0.265082563820E-03         3     3     7     6
   0.115796443739E-04         4     1     7     6
  -0.844504533940E-03         4     2     7     6
   0.122775892571E-04         4     3     7     6
   0.132122004905E-03         4     4     7     6
  -0.393289098030E-04         5     1     7     6
  -0.349695629127E-03         5     2     7     6
  -0.594201988078E-04         5     3     7     6
   0.801200041708E-05         5     4     7     6
   0.178711255354E-03         5     5     7     6
   0.996220583742E-03         6     1     7     6
  -0.522780956530E-05         6     2     7     6
  -0.162503836489E-02         6     3     7     6
  -0.862263287154E-03         6     4     7     6
  -0.336890204461E-02         6     5     7     6
  -0.257604373085E-03         6     6     7     6
   0.856386786643E-02         7     6     7     6
  -0.223199019988E-03         7     7     7     6
   0.489257173326             1     1     7     7
   0.204848899380E-03         2     1     7     7
   0.510277844172             2     2     7     7
   0.157182264738E-02         3     1     7     7
  -0.541321261379E-04         3     2     7     7
   0.518876967121             3     3     7     7
   0.258656895932E-01         4     1     7     7
  -0.218905939209E-03         4     2     7     7
  -0.156990806231E-01         4     3     7     7
   0.288023625060             4     4     7     7
   0.997260889406E-01         5     1     7     7
   0.938970549307E-03         5     2     7     7
   0.268127399473E-01         5     3     7     7
   0.237108250669E-01         5     4     7     7
   0.446145899296             5     5     7     7
   0.608827667549E-03         6     1     7     7
  -0.110023622854             6     2     7     7
   0.295448835812E-03         6     3     7     7
   0.413073705647E-03         6     4     7     7
  -0.263950368927E-03         6     5     7     7
   0.466199550662             6     6     7     7
   0.470719148068             7     7     7     7
   0.172666755006E-01         8     1     8     1
   0.951341027763E-04         8     1     8     2
   0.204478530470E-01         8     2     8     2
  -0.738360317887E-02         8     1     8     3
   0.810332317832E-04         8     2     8     3
   0.200115013454E-01         8     3     8     3
   0.275625984055E-02         8     1     8     4
  -0.171023024082E-04         8     2     8     4
  -0.230892544669E-02         8     3     8     4
   0.103041900374E-02         8     4     8     4
   0.483147637020E-02         8     1     8     5
   0.891613661137E-04         8     2     8     5
  -0.252109317480E-03         8     3     8     5
   0.102173278428E-03         8     4     8     5
   0.721836386190E-02         8     5     8     5
   0.112141985573E-05         8     1     8     6
  -0.669536228932E-02         8     2     8     6
  -0.211935751476E-04         8     3     8     6
   0.685925198156E-05         8     4     8     6
  -0.639446417517E-04         8     5     8     6
   0.950285315188E-02         8     6     8     6
   0.341737748600E-02         8     1     8     7
  -0.310059909702E-04         8     2     8     7
  -0.649257090112E-02         8     3     8     7
  -0.414709976909E-03         8     4     8     7
   0.317202137338E-02         8     5     8     7
   0.428536269611E-04         8     6     8     7
   0.127331670711E-01         8     7     8     7
   0.589058232994             1     1     8     8
  -0.181518725199E-03         2     1     8     8
   0.586167937029             2     2     8     8
   0.129868328678E-01         3     1     8     8
  -0.207978791372E-03         3     2     8     8
   0.583801866545             3     3     8     8
   0.379688181106E-01         4     1     8     8
  -0.348378272055E-03         4     2     8     8
  -0.171906066563E-01         4     3     8     8
   0.298149042713             4     4     8     8
   0.131910382276             5     1     8     8
   0.999851982917E-03         5     2     8     8
   0.399210164974E-01         5     3     8     8
   0.243880771980E-01         5     4     8     8
   0.516200904477             5     5     8     8
   0.945677941757E-03         6     1     8     8
  -0.135023746626             6     2     8     8
   0.504326555666E-03         6     3     8     8
   0.433769922993E-03         6     4     8     8
   0.252648020636E-03         6     5     8     8
   0.512730109924             6     6     8     8
   0.275894623160E-01         7     1     8     8
  -0.106025533813E-03         7     2     8     8
  -0.136078915264             7     3     8     8
   0.178830863433E-01         7     4     8     8
  -0.536202025737E-02         7     5     8     8
  -0.165879149682E-03         7     6     8     8
   0.503104650004             7     7     8     8
   0.626757481228             8     8     8     8
  -0.718275819586E-04         8     1     9     1
  -0.221245628527E-02         8     2     9     1
   0.384948669137E-04         8     3     9     1
  -0.121265614477E-04         8     4     9     1
  -0.240328178146E-04         8     5     9     1
   0.548482048537E-03         8     6     9     1
  -0.126257532843E-04         8     7     9     1
   0.550514868646E-02         9     1     9     1
  -0.445106912448E-02         8     1     9     2
   0.683216511543E-04         8     2     9     2
   0.540535789049E-02         8     3     9     2
  -0.109738408179E-02         8     4     9     2
  -0.726970069359E-03         8     5     9     2
  -0.228346974674E-04         8     6     9     2
  -0.151023332489E-02         8     7     9     2
   0.564242854717E-05         9     1     9     2
   0.716722661479E-02         9     2     9     2
  -0.886178019398E-04         8     1     9     3
  -0.490068627101E-02         8     2     9     3
  -0.102486555631E-06         8     3     9     3
  -0.689826634229E-05         8     4     9     3
  -0.410708109149E-04         8     5     9     3
   0.170921444691E-02         8     6     9     3
   0.241836159397E-05         8     7     9     3
   0.109870568773E-02         9     1     9     3
  -0.950180450163E-05         9     2     9     3
   0.650281762814E-02         9     3     9     3
  -0.659982756692E-05         8     1     9     4
  -0.660087018592E-03         8     2     9     4
  -0.603206291441E-05         8     3     9     4
   0.117515508872E-05         8     4     9     4
   0.217928682815E-04         8     5     9     4
  -0.112135384739E-02         8     6     9     4
  -0.529128817066E-05         8     7     9     4
  -0.557692064199E-03         9     1     9     4
  -0.486194150267E-05         9     2     9     4
   0.145679859738E-02         9     3     9     4
   0.120687067555E-01         9     4     9     4
  -0.338286264567E-04         8     1     9     5
  -0.643572616820E-03         8     2     9     5
   0.125675344979E-04         8     3     9     5
   0.142358705266E-04         8     4     9     5
  -0.554692348032E-04         8     5     9     5
   0.156549445201E-02         8     6     9     5
  -0.534821261750E-04         8     7     9     5
  -0.668502131641E-03         9     1     9     5
   0.297655763286E-04         9     2     9     5
   0.484778111781E-03         9     3     9     5
  -0.133925338276E-02         9     4     9     5
   0.735575995082E-02         9     5     9     5
   0.855738113753E-03         8     1     9     6
  -0.193584821226E-04         8     2     9     6
  -0.829900856083E-03         8     3     9     6
  -0.735181522995E-03         8     4     9     6
   0.149788810070E-02         8     5     9     6
   0.508176403574E-04         8     6     9     6
   0.333114279586E-02         8     7     9     6
  -0.260421825256E-04         9     1     9     6
  -0.104196185218E-02         9     2     9     6
   0.906878279209E-05         9     3     9     6
  -0.355753159640E-04         9     4     9     6
   0.700775300209E-04         9     5     9     6
   0.433966477577E-02         9     6     9     6
   0.238166141066E-04         8     1     9     7
   0.177735550512E-02         8     2     9     7
   0.862042162917E-05         8     3     9     7
  -0.459536409239E-05         8     4     9     7
   0.315223071260E-04         8     5     9     7
  -0.999078721305E-03         8     6     9     7
   0.135907781037E-04         8     7     9     7
  -0.632800659370E-03         9     1     9     7
   0.134629294187E-04         9     2     9     7
  -0.183646357506E-02         9     3     9     7
   0.918238675636E-03         9     4     9     7
   0.496453393188E-03         9     5     9     7
   0.188339645689E-04         9     6     9     7
   0.279338548819E-02         9     7     9     7
   0.571198427569E-04         1     1     9     8
   0.560920353072E-02         2     1     9     8
  -0.213553006011E-03         2     2     9     8
   0.698294141025E-04         3     1     9     8
   0.225633548819E-02         3     2     9     8
  -0.220628721385E-04         3     3     9     8
  -0.805754097115E-05         4     1     9     8
   0.348895978261E-03         4     2     9     8
   0.825979855262E-05         4     3     9     8
   0.131631435626E-04         4     4     9     8
   0.243971392650E-04         5     1     9     8
   0.184811832858E-02         5     2     9     8
   0.964168705016E-05         5     3     9     8
   0.302522391984E-04         5     4     9     8
   0.110591217776E-03         5     5     9     8
  -0.177326548687E-02         6     1     9     8
   0.839707010754E-04         6     2     9     8
  -0.486693637814E-04         6     3     9     8
  -0.194643702180E-02         6     4     9     8
  -0.390279470718E-02         6     5     9     8
  -0.216566794132E-03         6     6     9     8
  -0.200903047117E-04         7     1     9     8
   0.191927505636E-03         7     2     9     8
   0.286664068489E-04         7     3     9     8
  -0.143484665472E-04         7     4     9     8
  -0.595556608811E-04         7     5     9     8
   0.181114140341E-02         7     6     9     8
  -0.218661896071E-04         7     7     9     8
  -0.694621535065E-04         8     8     9     8
   0.727729042682E-02         9     8     9     8
   0.119212814702E-07         9     9     9     8
   0.406649284986             1     1     9     9
  -0.111032223959E-03         2     1     9     9
   0.395949513633             2     2     9     9
  -0.416229861442E-02         3     1     9     9
   0.560571931837E-04         3     2     9     9
   0.389582640548             3     3     9     9
   0.128853856477E-02         4     1     9     9
  -0.375808689287E-04         4     2     9     9
   0.520341112525E-02         4     3     9     9
   0.400077510342             4     4     9     9
   0.413864549773E-01         5     1     9     9
   0.434277814469E-03         5     2     9     9
   0.128296047496E-01         5     3     9     9
   0.166654328750E-02         5     4     9     9
   0.378497787310             5     5     9     9
   0.216264456530E-03         6     1     9     9
  -0.469387153307E-01         6     2     9     9
   0.142799003973E-03         6     3     9     9
  -0.265471469781E-04         6     4     9     9
   0.311178223545E-03         6     5     9     9
   0.366388138276             6     6     9     9
   0.849107297165E-02         7     1     9     9
  -0.268981919161E-04         7     2     9     9
  -0.491324164819E-01         7     3     9     9
   0.169451376567E-01         7     4     9     9
   0.816793412599E-02         7     5     9     9